TITLE = "dt=0.100000s, t=120.000000s, nu=0.000015, Lx=1.000000, Ly=1.000000, Lz=1.000000, Nx=12, Ny=12, Nz=12 "
VARIABLES =X, Y, Z, I, J, K, U, V, W, T, Xi, FlagP, P 
ZONE F=POINT, I=12, J=12, K=12
0.000000	0.000000	0.000000	0	0	0	0.000000	0.000000	0.000000	10.000000	0.000000	1.000000	0.000000
0.050000	0.000000	0.000000	1	0	0	0.000000	0.000000	0.000000	10.000000	0.000000	1.000000	0.000000
0.150000	0.000000	0.000000	2	0	0	0.000000	0.000000	0.000000	10.000000	0.000000	1.000000	0.000000
0.250000	0.000000	0.000000	3	0	0	0.000000	0.000000	0.000000	10.000000	0.000000	1.000000	0.000000
0.350000	0.000000	0.000000	4	0	0	0.000000	0.000000	0.000000	10.000000	0.000000	1.000000	0.000000
0.450000	0.000000	0.000000	5	0	0	0.000000	0.000000	0.000000	10.000000	0.000000	1.000000	0.000000
0.550000	0.000000	0.000000	6	0	0	0.000000	0.000000	0.000000	10.000000	0.000000	1.000000	0.000000
0.650000	0.000000	0.000000	7	0	0	0.000000	0.000000	0.000000	10.000000	0.000000	1.000000	0.000000
0.750000	0.000000	0.000000	8	0	0	0.000000	0.000000	0.000000	10.000000	0.000000	1.000000	0.000000
0.850000	0.000000	0.000000	9	0	0	0.000000	0.000000	0.000000	10.000000	0.000000	1.000000	0.000000
0.950000	0.000000	0.000000	10	0	0	0.000000	0.000000	0.000000	10.000000	0.000000	1.000000	0.000000
1.000000	0.000000	0.000000	11	0	0	0.000000	0.000000	0.000000	10.000000	0.000000	1.000000	0.000000
0.000000	0.050000	0.000000	0	1	0	0.000000	0.000000	0.000000	10.000000	0.000000	1.000000	0.000000
0.050000	0.050000	0.000000	1	1	0	0.000000	0.000000	0.000000	10.000000	0.099832	1.000000	6.099183
0.150000	0.050000	0.000000	2	1	0	0.000000	0.000000	0.000000	10.000000	0.000000	1.000000	6.099187
0.250000	0.050000	0.000000	3	1	0	0.000000	0.000000	0.000000	10.000000	0.000000	1.000000	6.099146
0.350000	0.050000	0.000000	4	1	0	0.000000	0.000000	0.000000	10.000000	0.000000	1.000000	6.099126
0.450000	0.050000	0.000000	5	1	0	0.000000	0.000000	0.000000	10.000000	0.000000	1.000000	6.099215
0.550000	0.050000	0.000000	6	1	0	0.000000	0.000000	0.000000	10.000000	0.000000	1.000000	6.099503
0.650000	0.050000	0.000000	7	1	0	0.000000	0.000000	0.000000	10.000000	0.000000	1.000000	6.100075
0.750000	0.050000	0.000000	8	1	0	0.000000	0.000000	0.000000	10.000000	0.000000	1.000000	6.100907
0.850000	0.050000	0.000000	9	1	0	0.000000	0.000000	0.000000	10.000000	0.000000	1.000000	6.101538
0.950000	0.050000	0.000000	10	1	0	0.000000	0.000000	0.000000	10.000000	0.000000	1.000000	6.102113
1.000000	0.050000	0.000000	11	1	0	0.000000	0.000000	0.000000	10.000000	0.000000	1.000000	0.000000
0.000000	0.150000	0.000000	0	2	0	0.000000	0.000000	0.000000	10.000000	0.000000	1.000000	0.000000
0.050000	0.150000	0.000000	1	2	0	0.000000	0.000000	0.000000	10.000000	0.099791	1.000000	6.099155
0.150000	0.150000	0.000000	2	2	0	0.000000	0.000000	0.000000	10.000000	0.000000	1.000000	6.099125
0.250000	0.150000	0.000000	3	2	0	0.000000	0.000000	0.000000	10.000000	0.000000	1.000000	6.099064
0.350000	0.150000	0.000000	4	2	0	0.000000	0.000000	0.000000	10.000000	0.000000	1.000000	6.099030
0.450000	0.150000	0.000000	5	2	0	0.000000	0.000000	0.000000	10.000000	0.000000	1.000000	6.099099
0.550000	0.150000	0.000000	6	2	0	0.000000	0.000000	0.000000	10.000000	0.000000	1.000000	6.099364
0.650000	0.150000	0.000000	7	2	0	0.000000	0.000000	0.000000	10.000000	0.000000	1.000000	6.099912
0.750000	0.150000	0.000000	8	2	0	0.000000	0.000000	0.000000	10.000000	0.000000	1.000000	6.100721
0.850000	0.150000	0.000000	9	2	0	0.000000	0.000000	0.000000	10.000000	0.000000	1.000000	6.101368
0.950000	0.150000	0.000000	10	2	0	0.000000	0.000000	0.000000	10.000000	0.000000	1.000000	6.101958
1.000000	0.150000	0.000000	11	2	0	0.000000	0.000000	0.000000	10.000000	0.000000	1.000000	0.000000
0.000000	0.250000	0.000000	0	3	0	0.000000	0.000000	0.000000	10.000000	0.000000	1.000000	0.000000
0.050000	0.250000	0.000000	1	3	0	0.000000	0.000000	0.000000	10.000000	0.099817	1.000000	6.099023
0.150000	0.250000	0.000000	2	3	0	0.000000	0.000000	0.000000	10.000000	0.000000	1.000000	6.098974
0.250000	0.250000	0.000000	3	3	0	0.000000	0.000000	0.000000	10.000000	0.000000	1.000000	6.098883
0.350000	0.250000	0.000000	4	3	0	0.000000	0.000000	0.000000	10.000000	0.000000	1.000000	6.098810
0.450000	0.250000	0.000000	5	3	0	0.000000	0.000000	0.000000	10.000000	0.000000	1.000000	6.098836
0.550000	0.250000	0.000000	6	3	0	0.000000	0.000000	0.000000	10.000000	0.000000	1.000000	6.099055
0.650000	0.250000	0.000000	7	3	0	0.000000	0.000000	0.000000	10.000000	0.000000	1.000000	6.099561
0.750000	0.250000	0.000000	8	3	0	0.000000	0.000000	0.000000	10.000000	0.000000	1.000000	6.100345
0.850000	0.250000	0.000000	9	3	0	0.000000	0.000000	0.000000	10.000000	0.000000	1.000000	6.100966
0.950000	0.250000	0.000000	10	3	0	0.000000	0.000000	0.000000	10.000000	0.000000	1.000000	6.101534
1.000000	0.250000	0.000000	11	3	0	0.000000	0.000000	0.000000	10.000000	0.000000	1.000000	0.000000
0.000000	0.350000	0.000000	0	4	0	0.000000	0.000000	0.000000	10.000000	0.000000	1.000000	0.000000
0.050000	0.350000	0.000000	1	4	0	0.000000	0.000000	0.000000	10.000000	0.099825	1.000000	6.098815
0.150000	0.350000	0.000000	2	4	0	0.000000	0.000000	0.000000	10.000000	0.000000	1.000000	6.098748
0.250000	0.350000	0.000000	3	4	0	0.000000	0.000000	0.000000	10.000000	0.000000	1.000000	6.098617
0.350000	0.350000	0.000000	4	4	0	0.000000	0.000000	0.000000	10.000000	0.000000	1.000000	6.098488
0.450000	0.350000	0.000000	5	4	0	0.000000	0.000000	0.000000	10.000000	0.000000	1.000000	6.098446
0.550000	0.350000	0.000000	6	4	0	0.000000	0.000000	0.000000	10.000000	0.000000	1.000000	6.098591
0.650000	0.350000	0.000000	7	4	0	0.000000	0.000000	0.000000	10.000000	0.000000	1.000000	6.099030
0.750000	0.350000	0.000000	8	4	0	0.000000	0.000000	0.000000	10.000000	0.000000	1.000000	6.099770
0.850000	0.350000	0.000000	9	4	0	0.000000	0.000000	0.000000	10.000000	0.000000	1.000000	6.100385
0.950000	0.350000	0.000000	10	4	0	0.000000	0.000000	0.000000	10.000000	0.000000	1.000000	6.100976
1.000000	0.350000	0.000000	11	4	0	0.000000	0.000000	0.000000	10.000000	0.000000	1.000000	0.000000
0.000000	0.450000	0.000000	0	5	0	0.000000	0.000000	0.000000	10.000000	0.000000	1.000000	0.000000
0.050000	0.450000	0.000000	1	5	0	0.000000	0.000000	0.000000	10.000000	0.099829	1.000000	6.098557
0.150000	0.450000	0.000000	2	5	0	0.000000	0.000000	0.000000	10.000000	0.000000	1.000000	6.098465
0.250000	0.450000	0.000000	3	5	0	0.000000	0.000000	0.000000	10.000000	0.000000	1.000000	6.098284
0.350000	0.450000	0.000000	4	5	0	0.000000	0.000000	0.000000	10.000000	0.000000	1.000000	6.098082
0.450000	0.450000	0.000000	5	5	0	0.000000	0.000000	0.000000	10.000000	0.000000	1.000000	6.097947
0.550000	0.450000	0.000000	6	5	0	0.000000	0.000000	0.000000	10.000000	0.000000	1.000000	6.097992
0.650000	0.450000	0.000000	7	5	0	0.000000	0.000000	0.000000	10.000000	0.000000	1.000000	6.098339
0.750000	0.450000	0.000000	8	5	0	0.000000	0.000000	0.000000	10.000000	0.000000	1.000000	6.099020
0.850000	0.450000	0.000000	9	5	0	0.000000	0.000000	0.000000	10.000000	0.000000	1.000000	6.099671
0.950000	0.450000	0.000000	10	5	0	0.000000	0.000000	0.000000	10.000000	0.000000	1.000000	6.100378
1.000000	0.450000	0.000000	11	5	0	0.000000	0.000000	0.000000	10.000000	0.000000	1.000000	0.000000
0.000000	0.550000	0.000000	0	6	0	0.000000	0.000000	0.000000	10.000000	0.000000	1.000000	0.000000
0.050000	0.550000	0.000000	1	6	0	0.000000	0.000000	0.000000	10.000000	0.099828	1.000000	6.098273
0.150000	0.550000	0.000000	2	6	0	0.000000	0.000000	0.000000	10.000000	0.000000	1.000000	6.098151
0.250000	0.550000	0.000000	3	6	0	0.000000	0.000000	0.000000	10.000000	0.000000	1.000000	6.097911
0.350000	0.550000	0.000000	4	6	0	0.000000	0.000000	0.000000	10.000000	0.000000	1.000000	6.097619
0.450000	0.550000	0.000000	5	6	0	0.000000	0.000000	0.000000	10.000000	0.000000	1.000000	6.097368
0.550000	0.550000	0.000000	6	6	0	0.000000	0.000000	0.000000	10.000000	0.000000	1.000000	6.097281
0.650000	0.550000	0.000000	7	6	0	0.000000	0.000000	0.000000	10.000000	0.000000	1.000000	6.097507
0.750000	0.550000	0.000000	8	6	0	0.000000	0.000000	0.000000	10.000000	0.000000	1.000000	6.098123
0.850000	0.550000	0.000000	9	6	0	0.000000	0.000000	0.000000	10.000000	0.000000	1.000000	6.098848
0.950000	0.550000	0.000000	10	6	0	0.000000	0.000000	0.000000	10.000000	0.000000	1.000000	6.099857
1.000000	0.550000	0.000000	11	6	0	0.000000	0.000000	0.000000	10.000000	0.000000	1.000000	0.000000
0.000000	0.650000	0.000000	0	7	0	0.000000	0.000000	0.000000	10.000000	0.000000	1.000000	0.000000
0.050000	0.650000	0.000000	1	7	0	0.000000	0.000000	0.000000	10.000000	0.099827	1.000000	6.097990
0.150000	0.650000	0.000000	2	7	0	0.000000	0.000000	0.000000	10.000000	0.000000	1.000000	6.097834
0.250000	0.650000	0.000000	3	7	0	0.000000	0.000000	0.000000	10.000000	0.000000	1.000000	6.097528
0.350000	0.650000	0.000000	4	7	0	0.000000	0.000000	0.000000	10.000000	0.000000	1.000000	6.097133
0.450000	0.650000	0.000000	5	7	0	0.000000	0.000000	0.000000	10.000000	0.000000	1.000000	6.096740
0.550000	0.650000	0.000000	6	7	0	0.000000	0.000000	0.000000	10.000000	0.000000	1.000000	6.096475
0.650000	0.650000	0.000000	7	7	0	0.000000	0.000000	0.000000	10.000000	0.000000	1.000000	6.096520
0.750000	0.650000	0.000000	8	7	0	0.000000	0.000000	0.000000	10.000000	0.000000	1.000000	6.097063
0.850000	0.650000	0.000000	9	7	0	0.000000	0.000000	0.000000	10.000000	0.000000	1.000000	6.098077
0.950000	0.650000	0.000000	10	7	0	0.000000	0.000000	0.000000	10.000000	0.000000	1.000000	6.100101
1.000000	0.650000	0.000000	11	7	0	0.000000	0.000000	0.000000	10.000000	0.000000	1.000000	0.000000
0.000000	0.750000	0.000000	0	8	0	0.000000	0.000000	0.000000	10.000000	0.000000	1.000000	0.000000
0.050000	0.750000	0.000000	1	8	0	0.000000	0.000000	0.000000	10.000000	0.099819	1.000000	6.097736
0.150000	0.750000	0.000000	2	8	0	0.000000	0.000000	0.000000	10.000000	0.000000	1.000000	6.097547
0.250000	0.750000	0.000000	3	8	0	0.000000	0.000000	0.000000	10.000000	0.000000	1.000000	6.097176
0.350000	0.750000	0.000000	4	8	0	0.000000	0.000000	0.000000	10.000000	0.000000	1.000000	6.096672
0.450000	0.750000	0.000000	5	8	0	0.000000	0.000000	0.000000	10.000000	0.000000	1.000000	6.096109
0.550000	0.750000	0.000000	6	8	0	0.000000	0.000000	0.000000	10.000000	0.000000	1.000000	6.095589
0.650000	0.750000	0.000000	7	8	0	0.000000	0.000000	0.000000	10.000000	0.000000	1.000000	6.095281
0.750000	0.750000	0.000000	8	8	0	0.000000	0.000000	0.000000	10.000000	0.000000	1.000000	6.095453
0.850000	0.750000	0.000000	9	8	0	0.000000	0.000000	0.000000	10.000000	0.000000	1.000000	6.096547
0.950000	0.750000	0.000000	10	8	0	0.000000	0.000000	0.000000	10.000000	0.000000	1.000000	6.100940
1.000000	0.750000	0.000000	11	8	0	0.000000	0.000000	0.000000	10.000000	0.000000	1.000000	0.000000
0.000000	0.850000	0.000000	0	9	0	0.000000	0.000000	0.000000	10.000000	0.000000	1.000000	0.000000
0.050000	0.850000	0.000000	1	9	0	0.000000	0.000000	0.000000	10.000000	0.099794	1.000000	6.097538
0.150000	0.850000	0.000000	2	9	0	0.000000	0.000000	0.000000	10.000000	0.000000	1.000000	6.097325
0.250000	0.850000	0.000000	3	9	0	0.000000	0.000000	0.000000	10.000000	0.000000	1.000000	6.096901
0.350000	0.850000	0.000000	4	9	0	0.000000	0.000000	0.000000	10.000000	0.000000	1.000000	6.096297
0.450000	0.850000	0.000000	5	9	0	0.000000	0.000000	0.000000	10.000000	0.000000	1.000000	6.095550
0.550000	0.850000	0.000000	6	9	0	0.000000	0.000000	0.000000	10.000000	0.000000	1.000000	6.094687
0.650000	0.850000	0.000000	7	9	0	0.000000	0.000000	0.000000	10.000000	0.000000	1.000000	6.093691
0.750000	0.850000	0.000000	8	9	0	0.000000	0.000000	0.000000	10.000000	0.000000	1.000000	6.092499
0.850000	0.850000	0.000000	9	9	0	0.000000	0.000000	0.000000	10.000000	0.000000	1.000000	6.091409
0.950000	0.850000	0.000000	10	9	0	0.000000	0.000000	0.000000	10.000000	0.000000	1.000000	6.097136
1.000000	0.850000	0.000000	11	9	0	0.000000	0.000000	0.000000	10.000000	0.000000	1.000000	0.000000
0.000000	0.950000	0.000000	0	10	0	0.000000	0.000000	0.000000	10.000000	0.000000	1.000000	0.000000
0.050000	0.950000	0.000000	1	10	0	0.000000	0.000000	0.000000	10.000000	0.099829	1.000000	6.097410
0.150000	0.950000	0.000000	2	10	0	0.000000	0.000000	0.000000	10.000000	0.000000	1.000000	6.097205
0.250000	0.950000	0.000000	3	10	0	0.000000	0.000000	0.000000	10.000000	0.000000	1.000000	6.096754
0.350000	0.950000	0.000000	4	10	0	0.000000	0.000000	0.000000	10.000000	0.000000	1.000000	6.096082
0.450000	0.950000	0.000000	5	10	0	0.000000	0.000000	0.000000	10.000000	0.000000	1.000000	6.095199
0.550000	0.950000	0.000000	6	10	0	0.000000	0.000000	0.000000	10.000000	0.000000	1.000000	6.094017
0.650000	0.950000	0.000000	7	10	0	0.000000	0.000000	0.000000	10.000000	0.000000	1.000000	6.092122
0.750000	0.950000	0.000000	8	10	0	0.000000	0.000000	0.000000	10.000000	0.000000	1.000000	6.087999
0.850000	0.950000	0.000000	9	10	0	0.000000	0.000000	0.000000	10.000000	0.000000	1.000000	6.076333
0.950000	0.950000	0.000000	10	10	0	0.000000	0.000000	0.000000	10.000000	0.000000	1.000000	6.088656
1.000000	0.950000	0.000000	11	10	0	0.000000	0.000000	0.000000	10.000000	0.000000	1.000000	0.000000
0.000000	1.000000	0.000000	0	11	0	0.000000	0.000000	0.000000	10.000000	0.000000	1.000000	0.000000
0.050000	1.000000	0.000000	1	11	0	0.000000	0.000000	0.000000	10.000000	0.000000	1.000000	0.000000
0.150000	1.000000	0.000000	2	11	0	0.000000	0.000000	0.000000	10.000000	0.000000	1.000000	0.000000
0.250000	1.000000	0.000000	3	11	0	0.000000	0.000000	0.000000	10.000000	0.000000	1.000000	0.000000
0.350000	1.000000	0.000000	4	11	0	0.000000	0.000000	0.000000	10.000000	0.000000	1.000000	0.000000
0.450000	1.000000	0.000000	5	11	0	0.000000	0.000000	0.000000	10.000000	0.000000	1.000000	0.000000
0.550000	1.000000	0.000000	6	11	0	0.000000	0.000000	0.000000	10.000000	0.000000	1.000000	0.000000
0.650000	1.000000	0.000000	7	11	0	0.000000	0.000000	0.000000	10.000000	0.000000	1.000000	0.000000
0.750000	1.000000	0.000000	8	11	0	0.000000	0.000000	0.000000	10.000000	0.000000	1.000000	0.000000
0.850000	1.000000	0.000000	9	11	0	0.000000	0.000000	0.000000	10.000000	0.000000	1.000000	0.000000
0.950000	1.000000	0.000000	10	11	0	0.000000	0.000000	0.000000	10.000000	0.000000	1.000000	0.000000
1.000000	1.000000	0.000000	11	11	0	0.000000	0.000000	0.000000	10.000000	0.000000	1.000000	0.000000
0.000000	0.000000	0.050000	0	0	1	0.000000	0.000000	0.000000	10.000000	0.000000	1.000000	0.000000
0.050000	0.000000	0.050000	1	0	1	0.000000	0.000000	0.000000	10.000000	0.099832	1.000000	6.099183
0.150000	0.000000	0.050000	2	0	1	0.000000	0.000000	0.000000	10.000000	0.000000	1.000000	6.099187
0.250000	0.000000	0.050000	3	0	1	0.000000	0.000000	0.000000	10.000000	0.000000	1.000000	6.099146
0.350000	0.000000	0.050000	4	0	1	0.000000	0.000000	0.000000	10.000000	0.000000	1.000000	6.099126
0.450000	0.000000	0.050000	5	0	1	0.000000	0.000000	0.000000	10.000000	0.000000	1.000000	6.099215
0.550000	0.000000	0.050000	6	0	1	0.000000	0.000000	0.000000	10.000000	0.000000	1.000000	6.099503
0.650000	0.000000	0.050000	7	0	1	0.000000	0.000000	0.000000	10.000000	0.000000	1.000000	6.100075
0.750000	0.000000	0.050000	8	0	1	0.000000	0.000000	0.000000	10.000000	0.000000	1.000000	6.100907
0.850000	0.000000	0.050000	9	0	1	0.000000	0.000000	0.000000	10.000000	0.000000	1.000000	6.101538
0.950000	0.000000	0.050000	10	0	1	0.000000	0.000000	0.000000	10.000000	0.000000	1.000000	6.102113
1.000000	0.000000	0.050000	11	0	1	0.000000	0.000000	0.000000	10.000000	0.000000	1.000000	0.000000
0.000000	0.050000	0.050000	0	1	1	0.000000	0.000000	0.000000	10.000000	0.099832	1.000000	6.099183
0.050000	0.050000	0.050000	1	1	1	-0.002504	-0.001612	0.003995	10.000000	0.099973	-1.000000	6.099183
0.150000	0.050000	0.050000	2	1	1	-0.009632	0.000308	0.004087	10.000000	0.046860	-1.000000	6.099187
0.250000	0.050000	0.050000	3	1	1	-0.018259	0.000271	0.003525	10.000000	0.054400	-1.000000	6.099146
0.350000	0.050000	0.050000	4	1	1	-0.025039	0.000035	0.002552	10.000000	0.057843	-1.000000	6.099126
0.450000	0.050000	0.050000	5	1	1	-0.028958	-0.000127	0.001087	10.000000	0.060112	-1.000000	6.099215
0.550000	0.050000	0.050000	6	1	1	-0.029102	-0.000233	-0.000935	10.000000	0.062010	-1.000000	6.099503
0.650000	0.050000	0.050000	7	1	1	-0.023901	-0.000349	-0.004016	10.000000	0.063790	-1.000000	6.100075
0.750000	0.050000	0.050000	8	1	1	-0.010627	-0.000558	-0.008664	10.000000	0.065565	-1.000000	6.100907
0.850000	0.050000	0.050000	9	1	1	0.014938	-0.001052	-0.015588	10.000000	0.067274	-1.000000	6.101538
0.950000	0.050000	0.050000	10	1	1	0.056444	-0.001347	0.000925	10.000000	0.066388	-1.000000	6.102113
1.000000	0.050000	0.050000	11	1	1	0.081454	0.000000	0.000000	10.000000	0.066388	2.000000	6.102113
0.000000	0.150000	0.050000	0	2	1	0.000000	0.000000	0.000000	10.000000	0.099791	1.000000	6.099155
0.050000	0.150000	0.050000	1	2	1	-0.005284	-0.002314	0.004141	10.000000	0.099894	-1.000000	6.099155
0.150000	0.150000	0.050000	2	2	1	-0.014346	0.000273	0.003805	10.000000	0.063348	-1.000000	6.099125
0.250000	0.150000	0.050000	3	2	1	-0.021394	0.000442	0.003090	10.000000	0.067378	-1.000000	6.099064
0.350000	0.150000	0.050000	4	2	1	-0.027059	0.000198	0.002003	10.000000	0.069753	-1.000000	6.099030
0.450000	0.150000	0.050000	5	2	1	-0.030399	-0.000009	0.000447	10.000000	0.071383	-1.000000	6.099099
0.550000	0.150000	0.050000	6	2	1	-0.030235	-0.000150	-0.001661	10.000000	0.072773	-1.000000	6.099364
0.650000	0.150000	0.050000	7	2	1	-0.024945	-0.000267	-0.004836	10.000000	0.074146	-1.000000	6.099912
0.750000	0.150000	0.050000	8	2	1	-0.012088	-0.000394	-0.009612	10.000000	0.075697	-1.000000	6.100721
0.850000	0.150000	0.050000	9	2	1	0.011543	-0.000467	-0.016796	10.000000	0.077337	-1.000000	6.101368
0.950000	0.150000	0.050000	10	2	1	0.051515	-0.000596	-0.002580	10.000000	0.076833	-1.000000	6.101958
1.000000	0.150000	0.050000	11	2	1	0.076532	0.000000	0.000000	10.000000	0.076833	2.000000	6.101958
0.000000	0.250000	0.050000	0	3	1	0.000000	0.000000	0.000000	10.000000	0.099817	1.000000	6.099023
0.050000	0.250000	0.050000	1	3	1	-0.004860	-0.000936	0.004179	10.000000	0.099914	-1.000000	6.099023
0.150000	0.250000	0.050000	2	3	1	-0.013868	-0.000114	0.003903	10.000000	0.065353	-1.000000	6.098974
0.250000	0.250000	0.050000	3	3	1	-0.021383	0.000215	0.003232	10.000000	0.069142	-1.000000	6.098883
0.350000	0.250000	0.050000	4	3	1	-0.027116	0.000245	0.002198	10.000000	0.071150	-1.000000	6.098810
0.450000	0.250000	0.050000	5	3	1	-0.030374	0.000198	0.000695	10.000000	0.072605	-1.000000	6.098836
0.550000	0.250000	0.050000	6	3	1	-0.030112	0.000151	-0.001365	10.000000	0.073897	-1.000000	6.099055
0.650000	0.250000	0.050000	7	3	1	-0.024671	0.000136	-0.004473	10.000000	0.075173	-1.000000	6.099561
0.750000	0.250000	0.050000	8	3	1	-0.011347	0.000195	-0.009113	10.000000	0.076597	-1.000000	6.100345
0.850000	0.250000	0.050000	9	3	1	0.014128	0.000604	-0.016072	10.000000	0.078082	-1.000000	6.100966
0.950000	0.250000	0.050000	10	3	1	0.055572	0.000919	0.000115	10.000000	0.077339	-1.000000	6.101534
1.000000	0.250000	0.050000	11	3	1	0.080578	0.000000	0.000000	10.000000	0.077339	2.000000	6.101534
0.000000	0.350000	0.050000	0	4	1	0.000000	0.000000	0.000000	10.000000	0.099825	1.000000	6.098815
0.050000	0.350000	0.050000	1	4	1	-0.004602	-0.000270	0.004197	10.000000	0.099921	-1.000000	6.098815
0.150000	0.350000	0.050000	2	4	1	-0.013487	-0.000103	0.003942	10.000000	0.065277	-1.000000	6.098748
0.250000	0.350000	0.050000	3	4	1	-0.021250	0.000056	0.003253	10.000000	0.069284	-1.000000	6.098617
0.350000	0.350000	0.050000	4	4	1	-0.027136	0.000120	0.002202	10.000000	0.071321	-1.000000	6.098488
0.450000	0.350000	0.050000	5	4	1	-0.030436	0.000130	0.000687	10.000000	0.072778	-1.000000	6.098446
0.550000	0.350000	0.050000	6	4	1	-0.030174	0.000124	-0.001375	10.000000	0.074069	-1.000000	6.098591
0.650000	0.350000	0.050000	7	4	1	-0.024749	0.000090	-0.004476	10.000000	0.075346	-1.000000	6.099030
0.750000	0.350000	0.050000	8	4	1	-0.011493	-0.000042	-0.009103	10.000000	0.076771	-1.000000	6.099770
0.850000	0.350000	0.050000	9	4	1	0.013849	-0.000481	-0.016052	10.000000	0.078241	-1.000000	6.100385
0.950000	0.350000	0.050000	10	4	1	0.055222	-0.000069	-0.000088	10.000000	0.077510	-1.000000	6.100976
1.000000	0.350000	0.050000	11	4	1	0.080240	0.000000	0.000000	10.000000	0.077510	2.000000	6.100976
0.000000	0.450000	0.050000	0	5	1	0.000000	0.000000	0.000000	10.000000	0.099829	1.000000	6.098557
0.050000	0.450000	0.050000	1	5	1	-0.004518	0.000034	0.004208	10.000000	0.099925	-1.000000	6.098557
0.150000	0.450000	0.050000	2	5	1	-0.013341	0.000056	0.003914	10.000000	0.065188	-1.000000	6.098465
0.250000	0.450000	0.050000	3	5	1	-0.021182	0.000137	0.003164	10.000000	0.069286	-1.000000	6.098284
0.350000	0.450000	0.050000	4	5	1	-0.027164	0.000216	0.002055	10.000000	0.071354	-1.000000	6.098082
0.450000	0.450000	0.050000	5	5	1	-0.030532	0.000286	0.000492	10.000000	0.072830	-1.000000	6.097947
0.550000	0.450000	0.050000	6	5	1	-0.030325	0.000356	-0.001611	10.000000	0.074139	-1.000000	6.097992
0.650000	0.450000	0.050000	7	5	1	-0.025025	0.000418	-0.004753	10.000000	0.075444	-1.000000	6.098339
0.750000	0.450000	0.050000	8	5	1	-0.012217	0.000402	-0.009424	10.000000	0.076922	-1.000000	6.099020
0.850000	0.450000	0.050000	9	5	1	0.011643	-0.000117	-0.016340	10.000000	0.078457	-1.000000	6.099671
0.950000	0.450000	0.050000	10	5	1	0.051941	0.001178	-0.002226	10.000000	0.077910	-1.000000	6.100378
1.000000	0.450000	0.050000	11	5	1	0.077017	0.000000	0.000000	10.000000	0.077910	2.000000	6.100378
0.000000	0.550000	0.050000	0	6	1	0.000000	0.000000	0.000000	10.000000	0.099828	1.000000	6.098273
0.050000	0.550000	0.050000	1	6	1	-0.004495	0.000220	0.004207	10.000000	0.099924	-1.000000	6.098273
0.150000	0.550000	0.050000	2	6	1	-0.013263	0.000187	0.003960	10.000000	0.065196	-1.000000	6.098151
0.250000	0.550000	0.050000	3	6	1	-0.021035	0.000206	0.003279	10.000000	0.069285	-1.000000	6.097911
0.350000	0.550000	0.050000	4	6	1	-0.026938	0.000277	0.002230	10.000000	0.071337	-1.000000	6.097619
0.450000	0.550000	0.050000	5	6	1	-0.030215	0.000385	0.000709	10.000000	0.072789	-1.000000	6.097368
0.550000	0.550000	0.050000	6	6	1	-0.029910	0.000534	-0.001364	10.000000	0.074067	-1.000000	6.097281
0.650000	0.550000	0.050000	7	6	1	-0.024524	0.000758	-0.004457	10.000000	0.075336	-1.000000	6.097507
0.750000	0.550000	0.050000	8	6	1	-0.011818	0.001132	-0.008937	10.000000	0.076763	-1.000000	6.098123
0.850000	0.550000	0.050000	9	6	1	0.010606	0.001673	-0.015094	10.000000	0.078252	-1.000000	6.098848
0.950000	0.550000	0.050000	10	6	1	0.049759	0.002122	-0.000035	10.000000	0.077484	-1.000000	6.099857
1.000000	0.550000	0.050000	11	6	1	0.074986	0.000000	0.000000	10.000000	0.077484	2.000000	6.099857
0.000000	0.650000	0.050000	0	7	1	0.000000	0.000000	0.000000	10.000000	0.099827	1.000000	6.097990
0.050000	0.650000	0.050000	1	7	1	-0.004619	0.000525	0.004191	10.000000	0.099923	-1.000000	6.097990
0.150000	0.650000	0.050000	2	7	1	-0.013481	0.000301	0.003871	10.000000	0.065394	-1.000000	6.097834
0.250000	0.650000	0.050000	3	7	1	-0.021173	0.000221	0.003130	10.000000	0.069358	-1.000000	6.097528
0.350000	0.650000	0.050000	4	7	1	-0.026994	0.000292	0.002021	10.000000	0.071383	-1.000000	6.097133
0.450000	0.650000	0.050000	5	7	1	-0.030207	0.000448	0.000436	10.000000	0.072828	-1.000000	6.096740
0.550000	0.650000	0.050000	6	7	1	-0.029808	0.000685	-0.001718	10.000000	0.074108	-1.000000	6.096475
0.650000	0.650000	0.050000	7	7	1	-0.024242	0.001100	-0.004940	10.000000	0.075393	-1.000000	6.096520
0.750000	0.650000	0.050000	8	7	1	-0.011165	0.001976	-0.009692	10.000000	0.076873	-1.000000	6.097063
0.850000	0.650000	0.050000	9	7	1	0.012435	0.004196	-0.016740	10.000000	0.078425	-1.000000	6.098077
0.950000	0.650000	0.050000	10	7	1	0.053018	0.003426	-0.003288	10.000000	0.077868	-1.000000	6.100101
1.000000	0.650000	0.050000	11	7	1	0.078752	0.000000	0.000000	10.000000	0.077868	2.000000	6.100101
0.000000	0.750000	0.050000	0	8	1	0.000000	0.000000	0.000000	10.000000	0.099819	1.000000	6.097736
0.050000	0.750000	0.050000	1	8	1	-0.004702	0.001080	0.004166	10.000000	0.099916	-1.000000	6.097736
0.150000	0.750000	0.050000	2	8	1	-0.013523	0.000277	0.003946	10.000000	0.065161	-1.000000	6.097547
0.250000	0.750000	0.050000	3	8	1	-0.020995	0.000057	0.003313	10.000000	0.069065	-1.000000	6.097176
0.350000	0.750000	0.050000	4	8	1	-0.026666	0.000155	0.002289	10.000000	0.071116	-1.000000	6.096672
0.450000	0.750000	0.050000	5	8	1	-0.029769	0.000358	0.000763	10.000000	0.072576	-1.000000	6.096109
0.550000	0.750000	0.050000	6	8	1	-0.029200	0.000631	-0.001354	10.000000	0.073856	-1.000000	6.095589
0.650000	0.750000	0.050000	7	8	1	-0.023197	0.001059	-0.004539	10.000000	0.075120	-1.000000	6.095281
0.750000	0.750000	0.050000	8	8	1	-0.008819	0.001878	-0.009262	10.000000	0.076529	-1.000000	6.095453
0.850000	0.750000	0.050000	9	8	1	0.019479	0.003703	-0.016759	10.000000	0.077937	-1.000000	6.096547
0.950000	0.750000	0.050000	10	8	1	0.064966	0.003766	-0.000797	10.000000	0.077159	-1.000000	6.100940
1.000000	0.750000	0.050000	11	8	1	0.091884	0.000000	0.000000	10.000000	0.077159	2.000000	6.100940
0.000000	0.850000	0.050000	0	9	1	0.000000	0.000000	0.000000	10.000000	0.099794	1.000000	6.097538
0.050000	0.850000	0.050000	1	9	1	-0.005210	0.002302	0.004121	10.000000	0.099896	-1.000000	6.097538
0.150000	0.850000	0.050000	2	9	1	-0.014159	-0.000150	0.003778	10.000000	0.063321	-1.000000	6.097325
0.250000	0.850000	0.050000	3	9	1	-0.021101	-0.000276	0.003056	10.000000	0.067393	-1.000000	6.096901
0.350000	0.850000	0.050000	4	9	1	-0.026594	0.000005	0.001953	10.000000	0.069793	-1.000000	6.096297
0.450000	0.850000	0.050000	5	9	1	-0.029652	0.000276	0.000353	10.000000	0.071419	-1.000000	6.095550
0.550000	0.850000	0.050000	6	9	1	-0.029022	0.000539	-0.001848	10.000000	0.072783	-1.000000	6.094687
0.650000	0.850000	0.050000	7	9	1	-0.022929	0.000878	-0.005184	10.000000	0.074132	-1.000000	6.093691
0.750000	0.850000	0.050000	8	9	1	-0.008580	0.001405	-0.010239	10.000000	0.075673	-1.000000	6.092499
0.850000	0.850000	0.050000	9	9	1	0.018875	0.002088	-0.018589	10.000000	0.077218	-1.000000	6.091409
0.950000	0.850000	0.050000	10	9	1	0.064259	0.004524	-0.005573	10.000000	0.076778	-1.000000	6.097136
1.000000	0.850000	0.050000	11	9	1	0.091845	0.000000	0.000000	10.000000	0.076778	2.000000	6.097136
0.000000	0.950000	0.050000	0	10	1	0.000000	0.000000	0.000000	10.000000	0.099829	1.000000	6.097410
0.050000	0.950000	0.050000	1	10	1	-0.002579	0.001595	0.003985	10.000000	0.099970	-1.000000	6.097410
0.150000	0.950000	0.050000	2	10	1	-0.009687	-0.000233	0.004040	10.000000	0.047175	-1.000000	6.097205
0.250000	0.950000	0.050000	3	10	1	-0.018108	-0.000193	0.003464	10.000000	0.054517	-1.000000	6.096754
0.350000	0.950000	0.050000	4	10	1	-0.024661	0.000042	0.002469	10.000000	0.057913	-1.000000	6.096082
0.450000	0.950000	0.050000	5	10	1	-0.028294	0.000216	0.000950	10.000000	0.060160	-1.000000	6.095199
0.550000	0.950000	0.050000	6	10	1	-0.027969	0.000359	-0.001190	10.000000	0.062035	-1.000000	6.094017
0.650000	0.950000	0.050000	7	10	1	-0.021959	0.000543	-0.004430	10.000000	0.063800	-1.000000	6.092122
0.750000	0.950000	0.050000	8	10	1	-0.007413	0.000846	-0.009264	10.000000	0.065548	-1.000000	6.087999
0.850000	0.950000	0.050000	9	10	1	0.020350	0.001289	-0.016914	10.000000	0.067080	-1.000000	6.076333
0.950000	0.950000	0.050000	10	10	1	0.069160	0.003479	-0.002929	10.000000	0.066176	-1.000000	6.088656
1.000000	0.950000	0.050000	11	10	1	0.100044	0.000000	0.000000	10.000000	0.066176	2.000000	6.088656
0.000000	1.000000	0.050000	0	11	1	0.000000	0.000000	0.000000	10.000000	0.000000	1.000000	0.000000
0.050000	1.000000	0.050000	1	11	1	0.000000	0.000000	0.000000	10.000000	0.099829	1.000000	6.097410
0.150000	1.000000	0.050000	2	11	1	0.000000	0.000000	0.000000	10.000000	0.000000	1.000000	6.097205
0.250000	1.000000	0.050000	3	11	1	0.000000	0.000000	0.000000	10.000000	0.000000	1.000000	6.096754
0.350000	1.000000	0.050000	4	11	1	0.000000	0.000000	0.000000	10.000000	0.000000	1.000000	6.096082
0.450000	1.000000	0.050000	5	11	1	0.000000	0.000000	0.000000	10.000000	0.000000	1.000000	6.095199
0.550000	1.000000	0.050000	6	11	1	0.000000	0.000000	0.000000	10.000000	0.000000	1.000000	6.094017
0.650000	1.000000	0.050000	7	11	1	0.000000	0.000000	0.000000	10.000000	0.000000	1.000000	6.092122
0.750000	1.000000	0.050000	8	11	1	0.000000	0.000000	0.000000	10.000000	0.000000	1.000000	6.087999
0.850000	1.000000	0.050000	9	11	1	0.000000	0.000000	0.000000	10.000000	0.000000	1.000000	6.076333
0.950000	1.000000	0.050000	10	11	1	0.000000	0.000000	0.000000	10.000000	0.000000	1.000000	6.088656
1.000000	1.000000	0.050000	11	11	1	0.000000	0.000000	0.000000	10.000000	0.000000	1.000000	0.000000
0.000000	0.000000	0.150000	0	0	2	0.000000	0.000000	0.000000	10.000000	0.000000	1.000000	0.000000
0.050000	0.000000	0.150000	1	0	2	0.000000	0.000000	0.000000	10.000000	0.099973	1.000000	6.099134
0.150000	0.000000	0.150000	2	0	2	0.000000	0.000000	0.000000	10.000000	0.000000	1.000000	6.099130
0.250000	0.000000	0.150000	3	0	2	0.000000	0.000000	0.000000	10.000000	0.000000	1.000000	6.099060
0.350000	0.000000	0.150000	4	0	2	0.000000	0.000000	0.000000	10.000000	0.000000	1.000000	6.098993
0.450000	0.000000	0.150000	5	0	2	0.000000	0.000000	0.000000	10.000000	0.000000	1.000000	6.099015
0.550000	0.000000	0.150000	6	0	2	0.000000	0.000000	0.000000	10.000000	0.000000	1.000000	6.099186
0.650000	0.000000	0.150000	7	0	2	0.000000	0.000000	0.000000	10.000000	0.000000	1.000000	6.099581
0.750000	0.000000	0.150000	8	0	2	0.000000	0.000000	0.000000	10.000000	0.000000	1.000000	6.100161
0.850000	0.000000	0.150000	9	0	2	0.000000	0.000000	0.000000	10.000000	0.000000	1.000000	6.100801
0.950000	0.000000	0.150000	10	0	2	0.000000	0.000000	0.000000	10.000000	0.000000	1.000000	6.101156
1.000000	0.000000	0.150000	11	0	2	0.000000	0.000000	0.000000	10.000000	0.000000	1.000000	0.000000
0.000000	0.050000	0.150000	0	1	2	0.000000	0.000000	0.000000	10.000000	0.099973	1.000000	6.099134
0.050000	0.050000	0.150000	1	1	2	-0.002820	-0.001533	0.012221	10.000000	0.099985	-1.000000	6.099134
0.150000	0.050000	0.150000	2	1	2	-0.010859	0.000601	0.012559	10.000000	0.049683	-1.000000	6.099130